#Bin[THz] Normalized-count 
0.0 3.0 
0.1077389524390324 18.0 
0.2154779048780648 15.0 
0.3232168573170972 15.0 
0.4309558097561296 14.0 
0.538694762195162 16.0 
0.6464337146341944 15.0 
0.7541726670732268 14.0 
0.8619116195122593 18.0 
0.9696505719512917 16.0 
1.077389524390324 17.0 
1.1851284768293564 15.0 
1.2928674292683888 17.0 
1.4006063817074212 17.0 
1.5083453341464537 20.0 
1.616084286585486 17.0 
1.7238232390245185 21.0 
1.831562191463551 23.0 
1.9393011439025833 23.0 
2.0470400963416155 28.0 
2.154779048780648 25.0 
2.2625180012196804 29.0 
2.370256953658713 31.0 
2.4779959060977452 49.0 
2.5857348585367776 13.0 
2.69347381097581 14.0 
2.8012127634148425 17.0 
2.908951715853875 16.0 
3.0166906682929073 16.0 
3.1244296207319397 20.0 
3.232168573170972 18.0 
3.3399075256100046 25.0 
3.447646478049037 57.0 
3.5553854304880694 50.0 
3.663124382927102 289.0 
3.7708633353661343 108.0 
3.8786022878051667 51.0 
3.986341240244199 42.0 
4.094080192683231 37.0 
4.201819145122264 41.0 
4.309558097561296 40.0 
4.417297050000329 23.0 
4.525036002439361 21.0 
4.632774954878394 24.0 
4.740513907317426 25.0 
4.8482528597564585 28.0 
4.9559918121954905 34.0 
5.063730764634523 64.0 
5.171469717073555 48.0 
5.279208669512588 60.0 
5.38694762195162 143.0 
