#Bin[THz] Normalized-count 
1.5231719039879029e-7 12.0 
0.08040719188062787 8.0 
0.16081423144406534 7.0 
0.2412212710075028 7.0 
0.32162831057094027 5.0 
0.40203535013437774 8.0 
0.4824423896978152 7.0 
0.5628494292612527 9.0 
0.6432564688246901 7.0 
0.7236635083881277 6.0 
0.8040705479515651 9.0 
0.8844775875150025 5.0 
0.96488462707844 9.0 
1.0452916666418774 7.0 
1.125698706205315 9.0 
1.2061057457687525 6.0 
1.2865127853321898 7.0 
1.3669198248956274 7.0 
1.4473268644590649 8.0 
1.5277339040225022 9.0 
1.6081409435859397 5.0 
1.6885479831493773 9.0 
1.7689550227128148 6.0 
1.849362062276252 9.0 
1.9297691018396896 8.0 
2.010176141403127 7.0 
2.0905831809665645 6.0 
2.170990220530002 9.0 
2.2513972600934395 9.0 
2.331804299656877 7.0 
2.4122113392203146 8.0 
2.4926183787837517 7.0 
2.5730254183471892 7.0 
2.6534324579106268 8.0 
2.7338394974740643 10.0 
2.814246537037502 8.0 
2.8946535766009394 7.0 
2.975060616164377 7.0 
3.055467655727814 7.0 
3.1358746952912515 10.0 
3.216281734854689 8.0 
3.2966887744181266 9.0 
3.377095813981564 8.0 
3.4575028535450016 9.0 
3.537909893108439 11.0 
3.6183169326718763 6.0 
3.698723972235314 9.0 
3.7791310117987513 8.0 
3.859538051362189 11.0 
3.9399450909256264 9.0 
4.020352130489064 10.0 
4.100759170052501 12.0 
4.181166209615939 9.0 
4.261573249179376 12.0 
4.341980288742814 12.0 
4.422387328306251 12.0 
4.502794367869688 17.0 
4.583201407433126 21.0 
4.663608446996563 14.0 
4.744015486560001 5.0 
4.824422526123438 6.0 
4.904829565686876 7.0 
4.985236605250313 5.0 
5.0656436448137505 8.0 
5.1460506843771885 4.0 
5.226457723940626 9.0 
5.3068647635040636 5.0 
5.387271803067501 7.0 
5.467678842630939 6.0 
5.548085882194376 6.0 
5.628492921757813 9.0 
5.708899961321251 6.0 
5.789307000884688 7.0 
5.869714040448126 9.0 
5.950121080011563 6.0 
6.030528119575001 7.0 
6.110935159138438 9.0 
6.191342198701875 27.0 
6.271749238265313 16.0 
6.35215627782875 13.0 
6.432563317392188 12.0 
6.512970356955625 13.0 
6.593377396519063 12.0 
6.6737844360825 16.0 
6.754191475645937 19.0 
6.834598515209375 71.0 
6.915005554772812 19.0 
6.99541259433625 12.0 
7.0758196338996875 11.0 
7.1562266734631255 11.0 
7.2366337130265626 10.0 
7.31704075259 13.0 
7.397447792153438 14.0 
7.477854831716875 35.0 
7.558261871280313 4.0 
7.63866891084375 2.0 
7.719075950407188 2.0 
7.799482989970625 2.0 
7.879890029534062 1.0 
7.9602970690975 3.0 
8.040704108660938 2.0 
8.121111148224374 2.0 
8.201518187787812 2.0 
8.28192522735125 2.0 
8.362332266914686 3.0 
8.442739306478124 1.0 
8.523146346041562 3.0 
8.603553385605 2.0 
8.683960425168436 2.0 
8.764367464731874 2.0 
8.844774504295312 2.0 
8.925181543858749 2.0 
9.005588583422186 3.0 
9.085995622985624 3.0 
9.166402662549062 0.0 
9.246809702112499 3.0 
9.327216741675937 3.0 
9.407623781239375 3.0 
9.48803082080281 2.0 
9.568437860366249 2.0 
9.648844899929687 3.0 
9.729251939493125 3.0 
9.809658979056561 2.0 
9.890066018619999 3.0 
9.970473058183437 2.0 
10.050880097746873 3.0 
10.131287137310311 2.0 
10.211694176873749 3.0 
10.292101216437187 3.0 
10.372508256000623 3.0 
10.452915295564061 3.0 
10.5333223351275 3.0 
10.613729374690935 3.0 
10.694136414254373 3.0 
10.774543453817811 3.0 
10.85495049338125 4.0 
10.935357532944685 3.0 
11.015764572508123 4.0 
11.096171612071561 4.0 
11.176578651634998 34.0 
11.256985691198436 21.0 
11.337392730761874 14.0 
11.417799770325312 13.0 
11.498206809888748 10.0 
11.578613849452186 4.0 
11.659020889015624 5.0 
11.73942792857906 4.0 
11.819834968142498 4.0 
11.900242007705936 5.0 
11.980649047269374 4.0 
12.06105608683281 5.0 
12.141463126396248 6.0 
12.221870165959686 6.0 
12.302277205523122 5.0 
12.38268424508656 19.0 
12.463091284649998 25.0 
12.543498324213436 31.0 
12.623905363776872 29.0 
12.70431240334031 3.0 
12.784719442903748 3.0 
12.865126482467184 2.0 
12.945533522030622 3.0 
13.02594056159406 2.0 
13.106347601157498 6.0 
13.186754640720935 5.0 
13.267161680284373 5.0 
13.34756871984781 5.0 
13.427975759411247 4.0 
13.508382798974685 5.0 
13.588789838538123 3.0 
13.66919687810156 4.0 
13.749603917664997 5.0 
13.830010957228435 4.0 
13.910417996791873 4.0 
13.990825036355309 5.0 
14.071232075918747 4.0 
14.151639115482185 5.0 
14.232046155045623 4.0 
14.31245319460906 4.0 
14.392860234172497 5.0 
14.473267273735935 5.0 
14.553674313299371 4.0 
14.63408135286281 5.0 
14.714488392426247 6.0 
14.794895431989685 5.0 
14.875302471553121 78.0 
14.95570951111656 62.0 
15.036116550679997 145.0 
15.116523590243434 33.0 
15.196930629806872 30.0 
15.27733766937031 29.0 
15.357744708933748 26.0 
15.438151748497184 71.0 
15.518558788060622 50.0 
15.59896582762406 43.0 
15.679372867187496 48.0 
15.759779906750934 53.0 
15.840186946314372 56.0 
15.92059398587781 73.0 
16.001001025441248 162.0 
16.081408065004684 9.0 
