#Bin[THz] Normalized-count 
0.0 0.0 
0.03718514001273168 0.0 
0.07437028002546336 0.0 
0.11155542003819506 0.0 
0.14874056005092673 0.0 
0.18592570006365844 1.0 
0.22311084007639012 4.0 
0.2602959800891218 0.0 
0.29748112010185346 2.0 
0.33466626011458517 1.0 
0.3718514001273169 2.0 
0.40903654014004853 3.0 
0.44622168015278024 6.0 
0.4834068201655119 2.0 
0.5205919601782436 3.0 
0.5577771001909753 9.0 
0.5949622402037069 13.0 
0.6321473802164387 10.0 
0.6693325202291703 6.0 
0.706517660241902 10.0 
0.7437028002546338 10.0 
0.7808879402673654 9.0 
0.8180730802800971 19.0 
0.8552582202928287 7.0 
0.8924433603055605 7.0 
0.9296285003182921 7.0 
0.9668136403310238 2.0 
1.0039987803437556 7.0 
1.0411839203564872 7.0 
1.0783690603692189 2.0 
1.1155542003819505 0.0 
1.1527393403946822 4.0 
1.1899244804074138 3.0 
1.2271096204201457 5.0 
1.2642947604328774 2.0 
1.301479900445609 0.0 
1.3386650404583407 1.0 
1.3758501804710723 4.0 
1.413035320483804 4.0 
1.4502204604965356 0.0 
1.4874056005092675 1.0 
1.5245907405219992 7.0 
1.5617758805347308 3.0 
1.5989610205474625 1.0 
1.6361461605601941 1.0 
1.6733313005729258 4.0 
1.7105164405856574 0.0 
1.7477015805983893 2.0 
1.784886720611121 2.0 
1.8220718606238526 0.0 
1.8592570006365843 2.0 
