#Bin[THz] Normalized-count 
0.0 0.0 
0.13516063018616667 0.0 
0.27032126037233334 0.0 
0.4054818905585 0.0 
0.5406425207446667 4.0 
0.6758031509308333 0.0 
0.810963781117 1.0 
0.9461244113031666 1.0 
1.0812850414893334 4.0 
1.2164456716754999 4.0 
1.3516063018616666 4.0 
1.4867669320478334 7.0 
1.621927562234 2.0 
1.7570881924201667 20.0 
1.8922488226063332 17.0 
2.0274094527925 15.0 
2.1625700829786667 27.0 
2.2977307131648335 7.0 
2.4328913433509998 31.0 
2.5680519735371665 16.0 
2.7032126037233333 33.0 
2.8383732339095 18.0 
2.973533864095667 21.0 
3.108694494281833 7.0 
3.243855124468 27.0 
3.3790157546541666 2.0 
3.5141763848403333 13.0 
3.6493370150265 9.0 
3.7844976452126664 0.0 
3.919658275398833 5.0 
4.054818905585 6.0 
4.189979535771166 9.0 
4.325140165957333 18.0 
4.4603007961435 0.0 
4.595461426329667 8.0 
4.730622056515833 7.0 
4.8657826867019995 9.0 
5.000943316888167 7.0 
5.136103947074333 5.0 
5.2712645772605 14.0 
5.4064252074466665 13.0 
5.541585837632833 11.0 
5.676746467819 23.0 
5.811907098005166 28.0 
5.947067728191334 19.0 
6.0822283583775 63.0 
6.217388988563666 36.0 
6.352549618749833 26.0 
6.487710248936 46.0 
6.622870879122167 74.0 
6.758031509308333 3.0 
